# vtk DataFile Version 3.1
pent.geo.bin
ASCII
DATASET UNSTRUCTURED_GRID
POINTS 116281 DOUBLE
0 0 0
0 1 0
-1 0 0
-1 1 0
0 0 1
0 1 1
-1 0 1
-1 1 1
0 2 0
-1 2 0
0 2 1
-1 2 1
0 3 0
-1 3 0
0 3 1
-1 3 1
0 4 0
-1 4 0
0 4 1
-1 4 1
0 5 0
-1 5 0
0 5 1
-1 5 1
0 6 0
-1 6 0
0 6 1
-1 6 1
0 7 0
-1 7 0
0 7 1
-1 7 1
0 8 0
-1 8 0
0 8 1
-1 8 1
0 9 0
-1 9 0
0 9 1
-1 9 1
0 10 0
-1 10 0
0 10 1
-1 10 1
0 11 0
-1 11 0
0 11 1
-1 11 1
0 12 0
-1 12 0
0 12 1
-1 12 1
0 13 0
-1 13 0
0 13 1
-1 13 1
0 14 0
-1 14 0
0 14 1
-1 14 1
0 15 0
-1 15 0
0 15 1
-1 15 1
0 16 0
-1 16 0
0 16 1
-1 16 1
0 17 0
-1 17 0
0 17 1
-1 17 1
0 18 0
-1 18 0
0 18 1
-1 18 1
0 19 0
-1 19 0
0 19 1
-1 19 1
0 20 0
-1 20 0
0 20 1
-1 20 1
0 21 0
-1 21 0
0 21 1
-1 21 1
0 22 0
-1 22 0
0 22 1
-1 22 1
0 23 0
-1 23 0
0 23 1
-1 23 1
0 24 0
-1 24 0
0 24 1
-1 24 1
0 25 0
-1 25 0
0 25 1
-1 25 1
0 26 0
-1 26 0
0 26 1
-1 26 1
0 27 0
-1 27 0
0 27 1
-1 27 1
0 28 0
-1 28 0
0 28 1
-1 28 1
0 29 0
-1 29 0
0 29 1
-1 29 1
0 30 0
-1 30 0
0 30 1
-1 30 1
-2 0 0
-2 1 0
-2 0 1
-2 1 1
-2 2 0
-2 2 1
-2 3 0
-2 3 1
-2 4 0
-2 4 1
-2 5 0
-2 5 1
-2 6 0
-2 6 1
-2 7 0
-2 7 1
-2 8 0
-2 8 1
-2 9 0
-2 9 1
-2 10 0
-2 10 1
-2 11 0
-2 11 1
-2 12 0
-2 12 1
-2 13 0
-2 13 1
-2 14 0
-2 14 1
-2 15 0
-2 15 1
-2 16 0
-2 16 1
-2 17 0
-2 17 1
-2 18 0
-2 18 1
-2 19 0
-2 19 1
-2 20 0
-2 20 1
-2 21 0
-2 21 1
-2 22 0
-2 22 1
-2 23 0
-2 23 1
-2 24 0
-2 24 1
-2 25 0
-2 25 1
-2 26 0
-2 26 1
-2 27 0
-2 27 1
-2 28 0
-2 28 1
-2 29 0
-2 29 1
-2 30 0
-2 30 1
-3 0 0
-3 1 0
-3 0 1
-3 1 1
-3 2 0
-3 2 1
-3 3 0
-3 3 1
-3 4 0
-3 4 1
-3 5 0
-3 5 1
-3 6 0
-3 6 1
-3 7 0
-3 7 1
-3 8 0
-3 8 1
-3 9 0
-3 9 1
-3 10 0
-3 10 1
-3 11 0
-3 11 1
-3 12 0
-3 12 1
-3 13 0
-3 13 1
-3 14 0
-3 14 1
-3 15 0
-3 15 1
-3 16 0
-3 16 1
-3 17 0
-3 17 1
-3 18 0
-3 18 1
-3 19 0
-3 19 1
-3 20 0
-3 20 1
-3 21 0
-3 21 1
-3 22 0
-3 22 1
-3 23 0
-3 23 1
-3 24 0
-3 24 1
-3 25 0
-3 25 1
-3 26 0
-3 26 1
-3 27 0
-3 27 1
-3 28 0
-3 28 1
-3 29 0
-3 29 1
-3 30 0
-3 30 1
-4 0 0
-4 1 0
-4 0 1
-4 1 1
-4 2 0
-4 2 1
-4 3 0
-4 3 1
-4 4 0
-4 4 1
-4 5 0
-4 5 1
-4 6 0
-4 6 1
-4 7 0
-4 7 1
-4 8 0
-4 8 1
-4 9 0
-4 9 1
-4 10 0
-4 10 1
-4 11 0
-4 11 1
-4 12 0
-4 12 1
-4 13 0
-4 13 1
-4 14 0
-4 14 1
-4 15 0
-4 15 1
-4 16 0
-4 16 1
-4 17 0
-4 17 1
-4 18 0
-4 18 1
-4 19 0
-4 19 1
-4 20 0
-4 20 1
-4 21 0
-4 21 1
-4 22 0
-4 22 1
-4 23 0
-4 23 1
-4 24 0
-4 24 1
-4 25 0
-4 25 1
-4 26 0
-4 26 1
-4 27 0
-4 27 1
-4 28 0
-4 28 1
-4 29 0
-4 29 1
-4 30 0
-4 30 1
-5 0 0
-5 1 0
-5 0 1
-5 1 1
-5 2 0
-5 2 1
-5 3 0
-5 3 1
-5 4 0
-5 4 1
-5 5 0
-5 5 1
-5 6 0
-5 6 1
-5 7 0
-5 7 1
-5 8 0
-5 8 1
-5 9 0
-5 9 1
-5 10 0
-5 10 1
-5 11 0
-5 11 1
-5 12 0
-5 12 1
-5 13 0
-5 13 1
-5 14 0
-5 14 1
-5 15 0
-5 15 1
-5 16 0
-5 16 1
-5 17 0
-5 17 1
-5 18 0
-5 18 1
-5 19 0
-5 19 1
-5 20 0
-5 20 1
-5 21 0
-5 21 1
-5 22 0
-5 22 1
-5 23 0
-5 23 1
-5 24 0
-5 24 1
-5 25 0
-5 25 1
-5 26 0
-5 26 1
-5 27 0
-5 27 1
-5 28 0
-5 28 1
-5 29 0
-5 29 1
-5 30 0
-5 30 1
-6 0 0
-6 1 0
-6 0 1
-6 1 1
-6 2 0
-6 2 1
-6 3 0
-6 3 1
-6 4 0
-6 4 1
-6 5 0
-6 5 1
-6 6 0
-6 6 1
-6 7 0
-6 7 1
-6 8 0
-6 8 1
-6 9 0
-6 9 1
-6 10 0
-6 10 1
-6 11 0
-6 11 1
-6 12 0
-6 12 1
-6 13 0
-6 13 1
-6 14 0
-6 14 1
-6 15 0
-6 15 1
-6 16 0
-6 16 1
-6 17 0
-6 17 1
-6 18 0
-6 18 1
-6 19 0
-6 19 1
-6 20 0
-6 20 1
-6 21 0
-6 21 1
-6 22 0
-6 22 1
-6 23 0
-6 23 1
-6 24 0
-6 24 1
-6 25 0
-6 25 1
-6 26 0
-6 26 1
-6 27 0
-6 27 1
-6 28 0
-6 28 1
-6 29 0
-6 29 1
-6 30 0
-6 30 1
-7 0 0
-7 1 0
-7 0 1
-7 1 1
-7 2 0
-7 2 1
-7 3 0
-7 3 1
-7 4 0
-7 4 1
-7 5 0
-7 5 1
-7 6 0
-7 6 1
-7 7 0
-7 7 1
-7 8 0
-7 8 1
-7 9 0
-7 9 1
-7 10 0
-7 10 1
-7 11 0
-7 11 1
-7 12 0
-7 12 1
-7 13 0
-7 13 1
-7 14 0
-7 14 1
-7 15 0
-7 15 1
-7 16 0
-7 16 1
-7 17 0
-7 17 1
-7 18 0
-7 18 1
-7 19 0
-7 19 1
-7 20 0
-7 20 1
-7 21 0
-7 21 1
-7 22 0
-7 22 1
-7 23 0
-7 23 1
-7 24 0
-7 24 1
-7 25 0
-7 25 1
-7 26 0
-7 26 1
-7 27 0
-7 27 1
-7 28 0
-7 28 1
-7 29 0
-7 29 1
-7 30 0
-7 30 1
-8 0 0
-8 1 0
-8 0 1
-8 1 1
-8 2 0
-8 2 1
-8 3 0
-8 3 1
-8 4 0
-8 4 1
-8 5 0
-8 5 1
-8 6 0
-8 6 1
-8 7 0
-8 7 1
-8 8 0
-8 8 1
-8 9 0
-8 9 1
-8 10 0
-8 10 1
-8 11 0
-8 11 1
-8 12 0
-8 12 1
-8 13 0
-8 13 1
-8 14 0
-8 14 1
-8 15 0
-8 15 1
-8 16 0
-8 16 1
-8 17 0
-8 17 1
-8 18 0
-8 18 1
-8 19 0
-8 19 1
-8 20 0
-8 20 1
-8 21 0
-8 21 1
-8 22 0
-8 22 1
-8 23 0
-8 23 1
-8 24 0
-8 24 1
-8 25 0
-8 25 1
-8 26 0
-8 26 1
-8 27 0
-8 27 1
-8 28 0
-8 28 1
-8 29 0
-8 29 1
-8 30 0
-8 30 1
-9 0 0
-9 1 0
-9 0 1
-9 1 1
-9 2 0
-9 2 1
-9 3 0
-9 3 1
-9 4 0
-9 4 1
-9 5 0
-9 5 1
-9 6 0
-9 6 1
-9 7 0
-9 7 1
-9 8 0
-9 8 1
-9 9 0
-9 9 1
-9 10 0
-9 10 1
-9 11 0
-9 11 1
-9 12 0
-9 12 1
-9 13 0
-9 13 1
-9 14 0
-9 14 1
-9 15 0
-9 15 1
-9 16 0
-9 16 1
-9 17 0
-9 17 1
-9 18 0
-9 18 1
-9 19 0
-9 19 1
-9 20 0
-9 20 1
-9 21 0
-9 21 1
-9 22 0
-9 22 1
-9 23 0
-9 23 1
-9 24 0
-9 24 1
-9 25 0
-9 25 1
-9 26 0
-9 26 1
-9 27 0
-9 27 1
-9 28 0
-9 28 1
-9 29 0
-9 29 1
-9 30 0
-9 30 1
-10 0 0
-10 1 0
-10 0 1
-10 1 1
-10 2 0
-10 2 1
-10 3 0
-10 3 1
-10 4 0
-10 4 1
-10 5 0
-10 5 1
-10 6 0
-10 6 1
-10 7 0
-10 7 1
-10 8 0
-10 8 1
-10 9 0
-10 9 1
-10 10 0
-10 10 1
-10 11 0
-10 11 1
-10 12 0
-10 12 1
-10 13 0
-10 13 1
-10 14 0
-10 14 1
-10 15 0
-10 15 1
-10 16 0
-10 16 1
-10 17 0
-10 17 1
-10 18 0
-10 18 1
-10 19 0
-10 19 1
-10 20 0
-10 20 1
-10 21 0
-10 21 1
-10 22 0
-10 22 1
-10 23 0
-10 23 1
-10 24 0
-10 24 1
-10 25 0
-10 25 1
-10 26 0
-10 26 1
-10 27 0
-10 27 1
-10 28 0
-10 28 1
-10 29 0
-10 29 1
-10 30 0
-10 30 1
-11 0 0
-11 1 0
-11 0 1
-11 1 1
-11 2 0
-11 2 1
-11 3 0
-11 3 1
-11 4 0
-11 4 1
-11 5 0
-11 5 1
-11 6 0
-11 6 1
-11 7 0
-11 7 1
-11 8 0
-11 8 1
-11 9 0
-11 9 1
-11 10 0
-11 10 1
-11 11 0
-11 11 1
-11 12 0
-11 12 1
-11 13 0
-11 13 1
-11 14 0
-11 14 1
-11 15 0
-11 15 1
-11 16 0
-11 16 1
-11 17 0
-11 17 1
-11 18 0
-11 18 1
-11 19 0
-11 19 1
-11 20 0
-11 20 1
-11 21 0
-11 21 1
-11 22 0
-11 22 1
-11 23 0
-11 23 1
-11 24 0
-11 24 1
-11 25 0
-11 25 1
-11 26 0
-11 26 1
-11 27 0
-11 27 1
-11 28 0
-11 28 1
-11 29 0
-11 29 1
-11 30 0
-11 30 1
-12 0 0
-12 1 0
-12 0 1
-12 1 1
-12 2 0
-12 2 1
-12 3 0
-12 3 1
-12 4 0
-12 4 1
-12 5 0
-12 5 1
-12 6 0
-12 6 1
-12 7 0
-12 7 1
-12 8 0
-12 8 1
-12 9 0
-12 9 1
-12 10 0
-12 10 1
-12 11 0
-12 11 1
-12 12 0
-12 12 1
-12 13 0
-12 13 1
-12 14 0
-12 14 1
-12 15 0
-12 15 1
-12 16 0
-12 16 1
-12 17 0
-12 17 1
-12 18 0
-12 18 1
-12 19 0
-12 19 1
-12 20 0
-12 20 1
-12 21 0
-12 21 1
-12 22 0
-12 22 1
-12 23 0
-12 23 1
-12 24 0
-12 24 1
-12 25 0
-12 25 1
-12 26 0
-12 26 1
-12 27 0
-12 27 1
-12 28 0
-12 28 1
-12 29 0
-12 29 1
-12 30 0
-12 30 1
-13 0 0
-13 1 0
-13 0 1
-13 1 1
-13 2 0
-13 2 1
-13 3 0
-13 3 1
-13 4 0
-13 4 1
-13 5 0
-13 5 1
-13 6 0
-13 6 1
-13 7 0
-13 7 1
-13 8 0
-13 8 1
-13 9 0
-13 9 1
-13 10 0
-13 10 1
-13 11 0
-13 11 1
-13 12 0
-13 12 1
-13 13 0
-13 13 1
-13 14 0
-13 14 1
-13 15 0
-13 15 1
-13 16 0
-13 16 1
-13 17 0
-13 17 1
-13 18 0
-13 18 1
-13 19 0
-13 19 1
-13 20 0
-13 20 1
-13 21 0
-13 21 1
-13 22 0
-13 22 1
-13 23 0
-13 23 1
-13 24 0
-13 24 1
-13 25 0
-13 25 1
-13 26 0
-13 26 1
-13 27 0
-13 27 1
-13 28 0
-13 28 1
-13 29 0
-13 29 1
-13 30 0
-13 30 1
-14 0 0
-14 1 0
-14 0 1
-14 1 1
-14 2 0
-14 2 1
-14 3 0
-14 3 1
-14 4 0
-14 4 1
-14 5 0
-14 5 1
-14 6 0
-14 6 1
-14 7 0
-14 7 1
-14 8 0
-14 8 1
-14 9 0
-14 9 1
-14 10 0
-14 10 1
-14 11 0
-14 11 1
-14 12 0
-14 12 1
-14 13 0
-14 13 1
-14 14 0
-14 14 1
-14 15 0
-14 15 1
-14 16 0
-14 16 1
-14 17 0
-14 17 1
-14 18 0
-14 18 1
-14 19 0
-14 19 1
-14 20 0
-14 20 1
-14 21 0
-14 21 1
-14 22 0
-14 22 1
-14 23 0
-14 23 1
-14 24 0
-14 24 1
-14 25 0
-14 25 1
-14 26 0
-14 26 1
-14 27 0
-14 27 1
-14 28 0
-14 28 1
-14 29 0
-14 29 1
-14 30 0
-14 30 1
-15 0 0
-15 1 0
-15 0 1
-15 1 1
-15 2 0
-15 2 1
-15 3 0
-15 3 1
-15 4 0
-15 4 1
-15 5 0
-15 5 1
-15 6 0
-15 6 1
-15 7 0
-15 7 1
-15 8 0
-15 8 1
-15 9 0
-15 9 1
-15 10 0
-15 10 1
-15 11 0
-15 11 1
-15 12 0
-15 12 1
-15 13 0
-15 13 1
-15 14 0
-15 14 1
-15 15 0
-15 15 1
-15 16 0
-15 16 1
-15 17 0
-15 17 1
-15 18 0
-15 18 1
-15 19 0
-15 19 1
-15 20 0
-15 20 1
-15 21 0
-15 21 1
-15 22 0
-15 22 1
-15 23 0
-15 23 1
-15 24 0
-15 24 1
-15 25 0
-15 25 1
-15 26 0
-15 26 1
-15 27 0
-15 27 1
-15 28 0
-15 28 1
-15 29 0
-15 29 1
-15 30 0
-15 30 1
-16 0 0
-16 1 0
-16 0 1
-16 1 1
-16 2 0
-16 2 1
-16 3 0
-16 3 1
-16 4 0
-16 4 1
-16 5 0
-16 5 1
-16 6 0
-16 6 1
-16 7 0
-16 7 1
-16 8 0
-16 8 1
-16 9 0
-16 9 1
-16 10 0
-16 10 1
-16 11 0
-16 11 1
-16 12 0
-16 12 1
-16 13 0
-16 13 1
-16 14 0
-16 14 1
-16 15 0
-16 15 1
-16 16 0
-16 16 1
-16 17 0
-16 17 1
-16 18 0
-16 18 1
-16 19 0
-16 19 1
-16 20 0
-16 20 1
-16 21 0
-16 21 1
-16 22 0
-16 22 1
-16 23 0
-16 23 1
-16 24 0
-16 24 1
-16 25 0
-16 25 1
-16 26 0
-16 26 1
-16 27 0
-16 27 1
-16 28 0
-16 28 1
-16 29 0
-16 29 1
-16 30 0
-16 30 1
-17 0 0
-17 1 0
-17 0 1
-17 1 1
-17 2 0
-17 2 1
-17 3 0
-17 3 1
-17 4 0
-17 4 1
-17 5 0
-17 5 1
-17 6 0
-17 6 1
-17 7 0
-17 7 1
-17 8 0
-17 8 1
-17 9 0
-17 9 1
-17 10 0
-17 10 1
-17 11 0
-17 11 1
-17 12 0
-17 12 1
-17 13 0
-17 13 1
-17 14 0
-17 14 1
-17 15 0
-17 15 1
-17 16 0
-17 16 1
-17 17 0
-17 17 1
-17 18 0
-17 18 1
-17 19 0
-17 19 1
-17 20 0
-17 20 1
-17 21 0
-17 21 1
-17 22 0
-17 22 1
-17 23 0
-17 23 1
-17 24 0
-17 24 1
-17 25 0
-17 25 1
-17 26 0
-17 26 1
-17 27 0
-17 27 1
-17 28 0
-17 28 1
-17 29 0
-17 29 1
-17 30 0
-17 30 1
-18 0 0
-18 1 0
-18 0 1
-18 1 1
-18 2 0
-18 2 1
-18 3 0
-18 3 1
-18 4 0
-18 4 1
-18 5 0
-18 5 1
-18 6 0
-18 6 1
-18 7 0
-18 7 1
-18 8 0
-18 8 1
-18 9 0
-18 9 1
-18 10 0
-18 10 1
-18 11 0
-18 11 1
-18 12 0
-18 12 1
-18 13 0
-18 13 1
-18 14 0
-18 14 1
-18 15 0
-18 15 1
-18 16 0
-18 16 1
-18 17 0
-18 17 1
-18 18 0
-18 18 1
-18 19 0
-18 19 1
-18 20 0
-18 20 1
-18 21 0
-18 21 1
-18 22 0
-18 22 1
-18 23 0
-18 23 1
-18 24 0
-18 24 1
-18 25 0
-18 25 1
-18 26 0
-18 26 1
-18 27 0
-18 27 1
-18 28 0
-18 28 1
-18 29 0
-18 29 1
-18 30 0
-18 30 1
-19 0 0
-19 1 0
-19 0 1
-19 1 1
-19 2 0
-19 2 1
-19 3 0
-19 3 1
-19 4 0
-19 4 1
-19 5 0
-19 5 1
-19 6 0
-19 6 1
-19 7 0
-19 7 1
-19 8 0
-19 8 1
-19 9 0
-19 9 1
-19 10 0
-19 10 1
-19 11 0
-19 11 1
-19 12 0
-19 12 1
-19 13 0
-19 13 1
-19 14 0
-19 14 1
-19 15 0
-19 15 1
-19 16 0
-19 16 1
-19 17 0
-19 17 1
-19 18 0
-19 18 1
-19 19 0
-19 19 1
-19 20 0
-19 20 1
-19 21 0
[...]
CELL_DATA 26989

SCALARS CGUP DOUBLE
LOOKUP_TABLE default
0.000000
0.000000
0.000000
0.000000
0.000000
0.000000
0.000000
0.000000
0.000000
0.000000
0.000000
0.000000
0.000000
612453.864218
0.000000
0.000000
614997.346068
603862.994912
0.000000
0.000000
0.000000
0.000000
0.000000
0.000000
598696.156397
598186.650169
0.000000
0.000000
0.000000
0.000000
0.000000
619303.391171
0.000000
600442.423871
0.000000
0.000000
765216.744743
0.000000
0.000000
0.000000
618332.784244
0.000000
617078.932617
592921.139771
751176.906042
736128.260845
0.000000
0.000000
0.000000
0.000000
0.000000
0.000000
0.000000
0.000000
0.000000
0.000000
0.000000
0.000000
0.000000
611842.364745
619779.160860
0.000000
590148.569666
0.000000
0.000000
0.000000
0.000000
0.000000
0.000000
0.000000
0.000000
611457.237589
609684.525802
0.000000
0.000000
0.000000
0.000000
0.000000
0.000000
0.000000
0.000000
0.000000
0.000000
615427.161663
608703.244715
0.000000
740607.994712
0.000000
608079.071839
579499.800274
0.000000
0.000000
0.000000
0.000000
0.000000
0.000000
0.000000
0.000000
0.000000
0.000000
0.000000
0.000000
601034.581862
602293.746715
605514.336715
583036.329331
1091750.238853
0.000000
0.000000
0.000000
0.000000
0.000000
0.000000
0.000000
0.000000
0.000000
0.000000
0.000000
0.000000
0.000000
0.000000
0.000000
602917.995036
614595.311994
0.000000
614038.550304
0.000000
623918.821603
586864.425079
0.000000
0.000000
0.000000
0.000000
0.000000
0.000000
603549.709051
0.000000
0.000000
604836.496903
0.000000
600238.374586
590900.908946
0.000000
0.000000
0.000000
0.000000
0.000000
596349.251856
0.000000
0.000000
0.000000
0.000000
608032.204654
610288.414560
0.000000
0.000000
602297.623532
0.000000
594731.048433
738353.182747
736336.175188
602122.275336
0.000000
608063.518646
584796.024077
0.000000
0.000000
0.000000
0.000000
0.000000
0.000000
0.000000
0.000000
0.000000
0.000000
0.000000
0.000000
0.000000
0.000000
0.000000
0.000000
613565.729420
0.000000
0.000000
0.000000
623877.666693
0.000000
0.000000
0.000000
0.000000
0.000000
0.000000
0.000000
0.000000
0.000000
0.000000
0.000000
0.000000
0.000000
0.000000
0.000000
0.000000
0.000000
0.000000
0.000000
0.000000
0.000000
0.000000
619213.756280
0.000000
0.000000
751430.703583
0.000000
788156.366711
579736.907936
599846.522549
0.000000
0.000000
0.000000
618847.420876
0.000000
0.000000
0.000000
575543.207103
0.000000
0.000000
609100.388736
0.000000
0.000000
601733.764665
592884.012564
602050.936606
593666.745938
592958.871457
0.000000
0.000000
0.000000
0.000000
0.000000
585401.691322
604586.895091
615615.559110
0.000000
600777.438808
0.000000
0.000000
0.000000
590591.486995
0.000000
0.000000
0.000000
0.000000
0.000000
0.000000
606123.145112
0.000000
0.000000
1102899.182611
0.000000
0.000000
0.000000
0.000000
606613.006614
610701.706594
588995.701427
595148.013210
0.000000
0.000000
0.000000
0.000000
0.000000
0.000000
0.000000
0.000000
0.000000
0.000000
0.000000
774429.535553
0.000000
0.000000
741562.041025
579747.721654
591811.452327
595164.483311
0.000000
579300.844869
0.000000
592946.120598
0.000000
606973.959138
0.000000
0.000000
0.000000
0.000000
0.000000
0.000000
0.000000
0.000000
0.000000
0.000000
0.000000
0.000000
0.000000
0.000000
0.000000
0.000000
0.000000
0.000000
0.000000
0.000000
0.000000
0.000000
0.000000
0.000000
0.000000
0.000000
0.000000
0.000000
0.000000
0.000000
0.000000
619401.121001
0.000000
757442.532615
750658.613605
612826.329446
0.000000
0.000000
0.000000
601781.189395
616698.298510
602315.399053
596842.671946
619780.252548
600416.561565
608291.558485
609720.279097
584228.974852
598955.721418
0.000000
0.000000
0.000000
0.000000
0.000000
0.000000
0.000000
0.000000
0.000000
0.000000
0.000000
0.000000
0.000000
0.000000
0.000000
0.000000
0.000000
0.000000
0.000000
0.000000
0.000000
0.000000
0.000000
619748.637006
0.000000
0.000000
0.000000
0.000000
0.000000
613105.601503
591797.795003
589591.765812
0.000000
0.000000
0.000000
0.000000
602134.063557
591804.006302
0.000000
0.000000
768151.583027
0.000000
0.000000
0.000000
590630.152074
0.000000
0.000000
0.000000
0.000000
0.000000
0.000000
0.000000
582268.446493
0.000000
601376.877378
0.000000
590637.885698
0.000000
590985.035199
588735.395746
0.000000
0.000000
755682.899006
584759.013232
0.000000
0.000000
0.000000
0.000000
0.000000
0.000000
584699.580329
0.000000
0.000000
598710.989608
605699.424190
601031.008833
0.000000
0.000000
0.000000
0.000000
0.000000
0.000000
0.000000
0.000000
0.000000
0.000000
611122.012645
594772.187879
740436.676306
737106.308683
0.000000
0.000000
0.000000
0.000000
600983.414763
0.000000
0.000000
604913.863883
0.000000
0.000000
0.000000
0.000000
0.000000
0.000000
0.000000
0.000000
0.000000
0.000000
0.000000
0.000000
0.000000
0.000000
0.000000
0.000000
0.000000
0.000000
600588.457171
0.000000
0.000000
0.000000
587975.665162
0.000000
0.000000
0.000000
0.000000
0.000000
0.000000
0.000000
0.000000
0.000000
0.000000
0.000000
0.000000
0.000000
0.000000
616592.645593
617712.835121
0.000000
0.000000
0.000000
0.000000
0.000000
0.000000
610561.563778
624235.762591
0.000000
0.000000
0.000000
0.000000
0.000000
0.000000
0.000000
0.000000
0.000000
0.000000
0.000000
0.000000
0.000000
0.000000
0.000000
0.000000
0.000000
0.000000
0.000000
0.000000
0.000000
0.000000
0.000000
0.000000
0.000000
0.000000
0.000000
0.000000
0.000000
0.000000
0.000000
613490.583829
0.000000
0.000000
0.000000
0.000000
0.000000
0.000000
0.000000
0.000000
0.000000
0.000000
0.000000
623472.692195
616565.546331
614807.135177
0.000000
605434.940786
605537.138288
0.000000
0.000000
596870.009255
0.000000
611749.005351
609870.691892
1168582.446104
612988.616406
0.000000
0.000000
0.000000
736180.320691
0.000000
0.000000
0.000000
0.000000
0.000000
0.000000
0.000000
0.000000
0.000000
0.000000
0.000000
0.000000
0.000000
0.000000
0.000000
0.000000
0.000000
0.000000
0.000000
0.000000
0.000000
0.000000
0.000000
623639.694880
609353.140875
600061.480499
605977.539027
609169.864057
583767.223235
0.000000
762965.397162
0.000000
765909.167284
589403.080521
0.000000
612053.870200
0.000000
579762.280513
0.000000
783175.633701
0.000000
0.000000
0.000000
0.000000
614507.335259
594848.811305
587969.691261
0.000000
0.000000
0.000000
0.000000
595158.966374
0.000000
596408.246087
615592.724745
0.000000
0.000000
577802.225566
0.000000
0.000000
0.000000
0.000000
0.000000
0.000000
613774.744663
0.000000
0.000000
0.000000
0.000000
0.000000
0.000000
0.000000
0.000000
0.000000
0.000000
0.000000
0.000000
0.000000
0.000000
0.000000
0.000000
0.000000
0.000000
0.000000
0.000000
0.000000
0.000000
0.000000
0.000000
0.000000
0.000000
597590.140669
0.000000
609630.861168
0.000000
755308.162256
0.000000
591756.787591
578300.738194
603702.147395
590734.354453
614228.929102
589574.179972
611529.930362
589424.170992
0.000000
595031.218822
0.000000
744308.777836
0.000000
0.000000
0.000000
0.000000
0.000000
0.000000
0.000000
0.000000
609580.036722
594061.515741
737029.475767
0.000000
0.000000
0.000000
0.000000
0.000000
0.000000
0.000000
0.000000
0.000000
0.000000
0.000000
0.000000
0.000000
0.000000
0.000000
0.000000
0.000000
0.000000
0.000000
0.000000
0.000000
602727.912659
0.000000
0.000000
0.000000
0.000000
605742.303532
579603.090725
619141.796795
602492.675474
0.000000
0.000000
598385.561261
0.000000
0.000000
0.000000
0.000000
745287.481298
608565.238548
606560.759888
592245.265926
603140.826178
0.000000
608422.076140
0.000000
587536.111629
0.000000
0.000000
607917.230970
0.000000
0.000000
0.000000
0.000000
0.000000
592763.710742
583374.598092
593186.441294
0.000000
0.000000
0.000000
0.000000
0.000000
0.000000
0.000000
0.000000
0.000000
0.000000
603141.653412
0.000000
600892.477355
0.000000
0.000000
0.000000
608565.954069
0.000000
604367.105332
0.000000
605416.855677
606537.044585
606947.908358
608055.028027
0.000000
0.000000
0.000000
0.000000
0.000000
0.000000
0.000000
0.000000
600858.901001
0.000000
0.000000
0.000000
0.000000
0.000000
0.000000
0.000000
0.000000
0.000000
0.000000
0.000000
0.000000
0.000000
0.000000
605465.321363
0.000000
0.000000
613172.275100
601079.596418
0.000000
0.000000
597735.155554
0.000000
0.000000
0.000000
617641.354124
610663.336995
0.000000
604557.724655
0.000000
0.000000
0.000000
0.000000
0.000000
0.000000
0.000000
0.000000
620192.117979
0.000000
0.000000
0.000000
0.000000
0.000000
0.000000
0.000000
0.000000
0.000000
596008.534895
590850.698558
579649.918125
0.000000
0.000000
611389.619157
0.000000
734310.234801
0.000000
0.000000
0.000000
0.000000
0.000000
0.000000
0.000000
0.000000
0.000000
575490.226227
608043.216832
606561.429128
0.000000
608435.837797
611752.706576
0.000000
0.000000
0.000000
0.000000
0.000000
0.000000
0.000000
0.000000
0.000000
0.000000
0.000000
0.000000
0.000000
0.000000
0.000000
0.000000
0.000000
0.000000
0.000000
0.000000
0.000000
0.000000
0.000000
0.000000
0.000000
0.000000
0.000000
743788.721357
596369.589034
597490.608157
619649.269306
601252.323814
0.000000
0.000000
0.000000
0.000000
0.000000
614053.724788
619704.319065
0.000000
0.000000
617694.095684
0.000000
0.000000
0.000000
0.000000
0.000000
599162.368373
0.000000
0.000000
617771.012342
0.000000
0.000000
583522.665869
613921.508578
583017.432140
604728.299823
594073.391722
598908.659178
0.000000
591751.174321
613187.278582
608051.581045
602129.488379
588906.462846
593481.209634
0.000000
0.000000
0.000000
0.000000
0.000000
778565.512803
0.000000
599167.388249
608664.915019
612596.626688
0.000000
0.000000
0.000000
0.000000
0.000000
0.000000
604541.354068
0.000000
0.000000
0.000000
0.000000
0.000000
0.000000
0.000000
0.000000
0.000000
0.000000
0.000000
0.000000
0.000000
0.000000
764308.344227
0.000000
0.000000
0.000000
0.000000
0.000000
0.000000
609619.495957
604398.084952
0.000000
0.000000
0.000000
735474.656666
0.000000
583375.023840
0.000000
0.000000
593798.157327
598687.395248
608961.949169
571677.836686
593609.053911
575592.242903
0.000000
0.000000
0.000000
0.000000
0.000000
0.000000
0.000000
579431.659995
0.000000
616429.308671
584527.763112
582906.199344
0.000000
0.000000
0.000000
0.000000
0.000000
0.000000
0.000000
0.000000
0.000000
0.000000
0.000000
601119.277001
593349.898341
584058.054567
587435.937556
0.000000
588446.462977
589659.510179
0.000000
0.000000
0.000000
0.000000
0.000000
0.000000
579748.371351
0.000000
0.000000
0.000000
0.000000
590803.314209
0.000000
0.000000
0.000000
0.000000
0.000000
0.000000
0.000000
0.000000
0.000000
0.000000
0.000000
0.000000
611497.492902
0.000000
0.000000
590317.962976
603382.488497
0.000000
0.000000
595179.826779
0.000000
0.000000
0.000000
0.000000
0.000000
0.000000
0.000000
0.000000
0.000000
0.000000
0.000000
0.000000
0.000000
0.000000
0.000000
0.000000
597662.618954
0.000000
0.000000
0.000000
0.000000
0.000000
0.000000
0.000000
0.000000
0.000000
0.000000
0.000000
0.000000
0.000000
0.000000
0.000000
0.000000
0.000000
0.000000
0.000000
0.000000
0.000000
0.000000
0.000000
0.000000
0.000000
0.000000
0.000000
0.000000
0.000000
0.000000
0.000000
0.000000
0.000000
0.000000
0.000000
599014.987781
604321.472513
614998.119911
735727.921764
0.000000
609111.734599
0.000000
598864.458725
0.000000
0.000000
619127.372176
0.000000
0.000000
0.000000
0.000000
0.000000
618756.481424
612875.945927
0.000000
0.000000
0.000000
598274.735880
606829.869943
0.000000
0.000000
0.000000
0.000000
0.000000
609100.515248
603036.294254
0.000000
0.000000
0.000000
0.000000
0.000000
0.000000
0.000000
0.000000
0.000000
597507.573400
617665.078185
0.000000
0.000000
615306.964403
0.000000
0.000000
0.000000
0.000000
0.000000
0.000000
0.000000
0.000000
0.000000
0.000000
0.000000
0.000000
0.000000
0.000000
0.000000
0.000000
0.000000
0.000000
0.000000
0.000000
0.000000
0.000000
0.000000
0.000000
0.000000
597963.317686
0.000000
604671.264623
611862.453458
0.000000
621893.254897
619044.932835
584608.064153
0.000000
593121.603286
0.000000
600092.429356
0.000000
0.000000
606872.616333
0.000000
0.000000
603378.515059
0.000000
0.000000
0.000000
0.000000
0.000000
0.000000
0.000000
0.000000
0.000000
0.000000
0.000000
602092.888729
587792.058452
602764.919818
0.000000
0.000000
0.000000
0.000000
592986.773303
0.000000
0.000000
0.000000
592351.235878
614285.980219
738812.912973
0.000000
737077.834082
604403.981999
604487.261637
744696.319357
597456.883313
0.000000
0.000000
0.000000
590983.486919
0.000000
0.000000
0.000000
0.000000
613474.624245
0.000000
599030.734247
0.000000
0.000000
607027.324299
614867.989678
0.000000
0.000000
0.000000
608565.954069
606055.239717
0.000000
0.000000
0.000000
0.000000
0.000000
0.000000
0.000000
0.000000
0.000000
0.000000
0.000000
0.000000
0.000000
0.000000
0.000000
0.000000
0.000000
0.000000
0.000000
0.000000
0.000000
611225.204547
0.000000
0.000000
604661.579675
0.000000
0.000000
0.000000
0.000000
0.000000
0.000000
0.000000
0.000000
0.000000
0.000000
0.000000
592207.386166
751036.251656
0.000000
0.000000
597221.159923
0.000000
0.000000
0.000000
0.000000
0.000000
0.000000
0.000000
0.000000
0.000000
0.000000
784106.397304
589541.185063
0.000000
0.000000
607659.077571
0.000000
623867.843240
0.000000
0.000000
0.000000
598528.518953
0.000000
619450.106843
597439.555805
0.000000
0.000000
768170.164957
599787.909597
590137.285413
781419.211446
0.000000
0.000000
0.000000
778914.713283
0.000000
0.000000
619689.300649
579756.357391
0.000000
0.000000
0.000000
0.000000
583371.967045
602567.957840
739833.704072
611545.788923
591772.194340
606929.104689
726112.706511
0.000000
0.000000
0.000000
0.000000
0.000000
0.000000
0.000000
0.000000
0.000000
0.000000
0.000000
0.000000
0.000000
0.000000
0.000000
609544.257516
0.000000
0.000000
792999.984857
600889.480835
615649.943082
0.000000
0.000000
0.000000
0.000000
0.000000
0.000000
0.000000
735510.633049
0.000000
0.000000
0.000000
0.000000
778643.322973
0.000000
0.000000
0.000000
0.000000
0.000000
0.000000
0.000000
0.000000
0.000000
0.000000
600013.876041
0.000000
0.000000
0.000000
0.000000
0.000000
0.000000
0.000000
0.000000
608883.121781
768520.575229
0.000000
0.000000
0.000000
0.000000
0.000000
0.000000
0.000000
0.000000
605547.726587
0.000000
0.000000
0.000000
0.000000
613642.477217
766097.147264
0.000000
603883.475108
0.000000
594046.831910
0.000000
0.000000
0.000000
624127.644309
0.000000
0.000000
0.000000
0.000000
0.000000
0.000000
0.000000
0.000000
0.000000
0.000000
0.000000
0.000000
0.000000
0.000000
0.000000
0.000000
0.000000
0.000000
0.000000
0.000000
0.000000
591114.825146
601550.722328
0.000000
0.000000
619656.734063
0.000000
0.000000
0.000000
0.000000
758764.846708
0.000000
0.000000
0.000000
0.000000
0.000000
0.000000
0.000000
0.000000
0.000000
0.000000
0.000000
0.000000
0.000000
778483.721954
616536.677718
0.000000
0.000000
747808.248244
791761.609605
608236.120318
592770.302143
0.000000
0.000000
0.000000
0.000000
593698.040401
0.000000
0.000000
598571.122023
611917.064765
0.000000
741061.047636
607963.408463
573116.657724
768114.220084
623996.942076
595240.120472
0.000000
0.000000
0.000000
0.000000
0.000000
0.000000
592862.873419
0.000000
0.000000
0.000000
0.000000
0.000000
0.000000
0.000000
0.000000
0.000000
0.000000
0.000000
0.000000
0.000000
0.000000
0.000000
0.000000
0.000000
0.000000
0.000000
0.000000
0.000000
0.000000
0.000000
0.000000
0.000000
0.000000
0.000000
603116.054583
0.000000
601358.006133
0.000000
605920.810215
600248.328015
595014.071732
0.000000
776545.281001
602850.434076
0.000000
582482.367271
0.000000
0.000000
0.000000
0.000000
0.000000
0.000000
0.000000
0.000000
0.000000
0.000000
608887.252579
0.000000
0.000000
619787.589087
0.000000
0.000000
0.000000
0.000000
0.000000
603073.380754
611059.859721
0.000000
0.000000
0.000000
740689.255156
0.000000
0.000000
0.000000
0.000000
0.000000
0.000000
0.000000
0.000000
0.000000
598979.377475
0.000000
0.000000
0.000000
0.000000
0.000000
0.000000
0.000000
0.000000
0.000000
601997.618691
0.000000
616587.372452
0.000000
0.000000
0.000000
0.000000
747880.922223
0.000000
0.000000
0.000000
0.000000
0.000000
0.000000
0.000000
0.000000
0.000000
0.000000
0.000000
0.000000
0.000000
0.000000
602429.624701
608648.952869
619732.000664
0.000000
599177.224695
605188.967429
596267.795062
575678.094884
599384.841148
602024.317604
0.000000
0.000000
0.000000
0.000000
0.000000
0.000000
0.000000
0.000000
0.000000
0.000000
0.000000
0.000000
0.000000
0.000000
623386.352737
0.000000
595937.870316
612790.894020
575647.201617
600901.425930
0.000000
0.000000
607783.864492
0.000000
0.000000
0.000000
623632.045568
594691.723987
605692.917789
0.000000
0.000000
0.000000
0.000000
0.000000
0.000000
0.000000
0.000000
0.000000
0.000000
0.000000
0.000000
0.000000
0.000000
0.000000
0.000000
0.000000
0.000000
616627.743746
735631.073460
0.000000
605451.943754
0.000000
602388.822029
611696.678418
0.000000
575523.775973
0.000000
0.000000
0.000000
0.000000
0.000000
623633.858315
0.000000
0.000000
0.000000
0.000000
0.000000
607965.719702
600842.852861
610367.605884
0.000000
738610.171554
0.000000
0.000000
732841.030369
0.000000
0.000000
591373.661262
0.000000
0.000000
0.000000
0.000000
596298.434890
764265.709991
0.000000
0.000000
594184.753156
605927.738960
0.000000
589648.363181
616222.108252
0.000000
590889.754767
614892.833556
0.000000
591949.174183
600990.641722
0.000000
605506.375433
615302.746420
0.000000
606278.348541
0.000000
0.000000
590961.927096
748354.634386
0.000000
0.000000
0.000000
0.000000
0.000000
581784.967186
756959.528293
0.000000
0.000000
0.000000
0.000000
608049.815605
0.000000
611702.208368
0.000000
0.000000
0.000000
0.000000
0.000000
596411.966406
609448.599898
589569.833295
599841.491286
579664.510041
605697.630559
603141.570470
0.000000
0.000000
601928.780858
603141.363843
606560.801463
0.000000
0.000000
596195.614140
0.000000
591851.750625
593068.295924
620270.882665
0.000000
0.000000
0.000000
0.000000
0.000000
0.000000
0.000000
0.000000
0.000000
0.000000
0.000000
0.000000
0.000000
0.000000
0.000000
0.000000
0.000000
0.000000
0.000000
0.000000
735846.401753
618673.314445
0.000000
0.000000
0.000000
0.000000
0.000000
0.000000
603058.661184
0.000000
0.000000
0.000000
0.000000
599128.332144
605962.844422
768278.656857
600679.507881
0.000000
0.000000
0.000000
590660.691106
0.000000
0.000000
0.000000
0.000000
0.000000
0.000000
0.000000
0.000000
0.000000
610727.487187
601699.682587
619989.547113
0.000000
589551.616530
594288.969060
597558.515614
0.000000
0.000000
0.000000
0.000000
0.000000
0.000000
0.000000
0.000000
0.000000
0.000000
0.000000
0.000000
0.000000
0.000000
0.000000
0.000000
0.000000
0.000000
0.000000
0.000000
0.000000
0.000000
0.000000
0.000000
0.000000
0.000000
0.000000
0.000000
0.000000
0.000000
0.000000
0.000000
0.000000
0.000000
0.000000
0.000000
0.000000
0.000000
0.000000
0.000000
0.000000
0.000000
0.000000
0.000000
0.000000
0.000000
0.000000
0.000000
0.000000
0.000000
0.000000
0.000000
0.000000
0.000000
0.000000
0.000000
0.000000
0.000000
0.000000
0.000000
0.000000
0.000000
0.000000
0.000000
0.000000
0.000000
0.000000
0.000000
0.000000
0.000000
0.000000
0.000000
0.000000
0.000000
0.000000
0.000000
0.000000
0.000000
0.000000
0.000000
0.000000
0.000000
0.000000
0.000000
0.000000
0.000000
0.000000
0.000000
0.000000
0.000000
0.000000
0.000000
0.000000
0.000000
0.000000
0.000000
0.000000
0.000000
0.000000
0.000000
616597.356520
587607.231511
0.000000
0.000000
0.000000
0.000000
602126.025951
0.000000
0.000000
0.000000
599075.693900
0.000000
0.000000
0.000000
747983.885357
0.000000
0.000000
613819.417421
0.000000
617710.015338
791781.565785
592452.654749
0.000000
0.000000
0.000000
0.000000
0.000000
0.000000
0.000000
0.000000
0.000000
0.000000
0.000000
0.000000
0.000000
0.000000
0.000000
0.000000
0.000000
0.000000
0.000000
0.000000
0.000000
0.000000
0.000000
0.000000
0.000000
0.000000
0.000000
0.000000
0.000000
0.000000
0.000000
0.000000
0.000000
0.000000
0.000000
0.000000
0.000000
0.000000
0.000000
0.000000
0.000000
0.000000
0.000000
0.000000
0.000000
599614.428255
0.000000
741977.580543
599086.302567
612194.358316
608281.588866
0.000000
0.000000
617682.731164
610998.567992
0.000000
614361.192095
597401.617198
0.000000
0.000000
0.000000
0.000000
613866.667422