# vtk DataFile Version 3.1
pent.geo.bin
ASCII
DATASET UNSTRUCTURED_GRID
POINTS 116281 DOUBLE
0 0 0
0 1 0
-1 0 0
-1 1 0
0 0 1
0 1 1
-1 0 1
-1 1 1
0 2 0
-1 2 0
0 2 1
-1 2 1
0 3 0
-1 3 0
0 3 1
-1 3 1
0 4 0
-1 4 0
0 4 1
-1 4 1
0 5 0
-1 5 0
0 5 1
-1 5 1
0 6 0
-1 6 0
0 6 1
-1 6 1
0 7 0
-1 7 0
0 7 1
-1 7 1
0 8 0
-1 8 0
0 8 1
-1 8 1
0 9 0
-1 9 0
0 9 1
-1 9 1
0 10 0
-1 10 0
0 10 1
-1 10 1
0 11 0
-1 11 0
0 11 1
-1 11 1
0 12 0
-1 12 0
0 12 1
-1 12 1
0 13 0
-1 13 0
0 13 1
-1 13 1
0 14 0
-1 14 0
0 14 1
-1 14 1
0 15 0
-1 15 0
0 15 1
-1 15 1
0 16 0
-1 16 0
0 16 1
-1 16 1
0 17 0
-1 17 0
0 17 1
-1 17 1
0 18 0
-1 18 0
0 18 1
-1 18 1
0 19 0
-1 19 0
0 19 1
-1 19 1
0 20 0
-1 20 0
0 20 1
-1 20 1
0 21 0
-1 21 0
0 21 1
-1 21 1
0 22 0
-1 22 0
0 22 1
-1 22 1
0 23 0
-1 23 0
0 23 1
-1 23 1
0 24 0
-1 24 0
0 24 1
-1 24 1
0 25 0
-1 25 0
0 25 1
-1 25 1
0 26 0
-1 26 0
0 26 1
-1 26 1
0 27 0
-1 27 0
0 27 1
-1 27 1
0 28 0
-1 28 0
0 28 1
-1 28 1
0 29 0
-1 29 0
0 29 1
-1 29 1
0 30 0
-1 30 0
0 30 1
-1 30 1
-2 0 0
-2 1 0
-2 0 1
-2 1 1
-2 2 0
-2 2 1
-2 3 0
-2 3 1
-2 4 0
-2 4 1
-2 5 0
-2 5 1
-2 6 0
-2 6 1
-2 7 0
-2 7 1
-2 8 0
-2 8 1
-2 9 0
-2 9 1
-2 10 0
-2 10 1
-2 11 0
-2 11 1
-2 12 0
-2 12 1
-2 13 0
-2 13 1
-2 14 0
-2 14 1
-2 15 0
-2 15 1
-2 16 0
-2 16 1
-2 17 0
-2 17 1
-2 18 0
-2 18 1
-2 19 0
-2 19 1
-2 20 0
-2 20 1
-2 21 0
-2 21 1
-2 22 0
-2 22 1
-2 23 0
-2 23 1
-2 24 0
-2 24 1
-2 25 0
-2 25 1
-2 26 0
-2 26 1
-2 27 0
-2 27 1
-2 28 0
-2 28 1
-2 29 0
-2 29 1
-2 30 0
-2 30 1
-3 0 0
-3 1 0
-3 0 1
-3 1 1
-3 2 0
-3 2 1
-3 3 0
-3 3 1
-3 4 0
-3 4 1
-3 5 0
-3 5 1
-3 6 0
-3 6 1
-3 7 0
-3 7 1
-3 8 0
-3 8 1
-3 9 0
-3 9 1
-3 10 0
-3 10 1
-3 11 0
-3 11 1
-3 12 0
-3 12 1
-3 13 0
-3 13 1
-3 14 0
-3 14 1
-3 15 0
-3 15 1
-3 16 0
-3 16 1
-3 17 0
-3 17 1
-3 18 0
-3 18 1
-3 19 0
-3 19 1
-3 20 0
-3 20 1
-3 21 0
-3 21 1
-3 22 0
-3 22 1
-3 23 0
-3 23 1
-3 24 0
-3 24 1
-3 25 0
-3 25 1
-3 26 0
-3 26 1
-3 27 0
-3 27 1
-3 28 0
-3 28 1
-3 29 0
-3 29 1
-3 30 0
-3 30 1
-4 0 0
-4 1 0
-4 0 1
-4 1 1
-4 2 0
-4 2 1
-4 3 0
-4 3 1
-4 4 0
-4 4 1
-4 5 0
-4 5 1
-4 6 0
-4 6 1
-4 7 0
-4 7 1
-4 8 0
-4 8 1
-4 9 0
-4 9 1
-4 10 0
-4 10 1
-4 11 0
-4 11 1
-4 12 0
-4 12 1
-4 13 0
-4 13 1
-4 14 0
-4 14 1
-4 15 0
-4 15 1
-4 16 0
-4 16 1
-4 17 0
-4 17 1
-4 18 0
-4 18 1
-4 19 0
-4 19 1
-4 20 0
-4 20 1
-4 21 0
-4 21 1
-4 22 0
-4 22 1
-4 23 0
-4 23 1
-4 24 0
-4 24 1
-4 25 0
-4 25 1
-4 26 0
-4 26 1
-4 27 0
-4 27 1
-4 28 0
-4 28 1
-4 29 0
-4 29 1
-4 30 0
-4 30 1
-5 0 0
-5 1 0
-5 0 1
-5 1 1
-5 2 0
-5 2 1
-5 3 0
-5 3 1
-5 4 0
-5 4 1
-5 5 0
-5 5 1
-5 6 0
-5 6 1
-5 7 0
-5 7 1
-5 8 0
-5 8 1
-5 9 0
-5 9 1
-5 10 0
-5 10 1
-5 11 0
-5 11 1
-5 12 0
-5 12 1
-5 13 0
-5 13 1
-5 14 0
-5 14 1
-5 15 0
-5 15 1
-5 16 0
-5 16 1
-5 17 0
-5 17 1
-5 18 0
-5 18 1
-5 19 0
-5 19 1
-5 20 0
-5 20 1
-5 21 0
-5 21 1
-5 22 0
-5 22 1
-5 23 0
-5 23 1
-5 24 0
-5 24 1
-5 25 0
-5 25 1
-5 26 0
-5 26 1
-5 27 0
-5 27 1
-5 28 0
-5 28 1
-5 29 0
-5 29 1
-5 30 0
-5 30 1
-6 0 0
-6 1 0
-6 0 1
-6 1 1
-6 2 0
-6 2 1
-6 3 0
-6 3 1
-6 4 0
-6 4 1
-6 5 0
-6 5 1
-6 6 0
-6 6 1
-6 7 0
-6 7 1
-6 8 0
-6 8 1
-6 9 0
-6 9 1
-6 10 0
-6 10 1
-6 11 0
-6 11 1
-6 12 0
-6 12 1
-6 13 0
-6 13 1
-6 14 0
-6 14 1
-6 15 0
-6 15 1
-6 16 0
-6 16 1
-6 17 0
-6 17 1
-6 18 0
-6 18 1
-6 19 0
-6 19 1
-6 20 0
-6 20 1
-6 21 0
-6 21 1
-6 22 0
-6 22 1
-6 23 0
-6 23 1
-6 24 0
-6 24 1
-6 25 0
-6 25 1
-6 26 0
-6 26 1
-6 27 0
-6 27 1
-6 28 0
-6 28 1
-6 29 0
-6 29 1
-6 30 0
-6 30 1
-7 0 0
-7 1 0
-7 0 1
-7 1 1
-7 2 0
-7 2 1
-7 3 0
-7 3 1
-7 4 0
-7 4 1
-7 5 0
-7 5 1
-7 6 0
-7 6 1
-7 7 0
-7 7 1
-7 8 0
-7 8 1
-7 9 0
-7 9 1
-7 10 0
-7 10 1
-7 11 0
-7 11 1
-7 12 0
-7 12 1
-7 13 0
-7 13 1
-7 14 0
-7 14 1
-7 15 0
-7 15 1
-7 16 0
-7 16 1
-7 17 0
-7 17 1
-7 18 0
-7 18 1
-7 19 0
-7 19 1
-7 20 0
-7 20 1
-7 21 0
-7 21 1
-7 22 0
-7 22 1
-7 23 0
-7 23 1
-7 24 0
-7 24 1
-7 25 0
-7 25 1
-7 26 0
-7 26 1
-7 27 0
-7 27 1
-7 28 0
-7 28 1
-7 29 0
-7 29 1
-7 30 0
-7 30 1
-8 0 0
-8 1 0
-8 0 1
-8 1 1
-8 2 0
-8 2 1
-8 3 0
-8 3 1
-8 4 0
-8 4 1
-8 5 0
-8 5 1
-8 6 0
-8 6 1
-8 7 0
-8 7 1
-8 8 0
-8 8 1
-8 9 0
-8 9 1
-8 10 0
-8 10 1
-8 11 0
-8 11 1
-8 12 0
-8 12 1
-8 13 0
-8 13 1
-8 14 0
-8 14 1
-8 15 0
-8 15 1
-8 16 0
-8 16 1
-8 17 0
-8 17 1
-8 18 0
-8 18 1
-8 19 0
-8 19 1
-8 20 0
-8 20 1
-8 21 0
-8 21 1
-8 22 0
-8 22 1
-8 23 0
-8 23 1
-8 24 0
-8 24 1
-8 25 0
-8 25 1
-8 26 0
-8 26 1
-8 27 0
-8 27 1
-8 28 0
-8 28 1
-8 29 0
-8 29 1
-8 30 0
-8 30 1
-9 0 0
-9 1 0
-9 0 1
-9 1 1
-9 2 0
-9 2 1
-9 3 0
-9 3 1
-9 4 0
-9 4 1
-9 5 0
-9 5 1
-9 6 0
-9 6 1
-9 7 0
-9 7 1
-9 8 0
-9 8 1
-9 9 0
-9 9 1
-9 10 0
-9 10 1
-9 11 0
-9 11 1
-9 12 0
-9 12 1
-9 13 0
-9 13 1
-9 14 0
-9 14 1
-9 15 0
-9 15 1
-9 16 0
-9 16 1
-9 17 0
-9 17 1
-9 18 0
-9 18 1
-9 19 0
-9 19 1
-9 20 0
-9 20 1
-9 21 0
-9 21 1
-9 22 0
-9 22 1
-9 23 0
-9 23 1
-9 24 0
-9 24 1
-9 25 0
-9 25 1
-9 26 0
-9 26 1
-9 27 0
-9 27 1
-9 28 0
-9 28 1
-9 29 0
-9 29 1
-9 30 0
-9 30 1
-10 0 0
-10 1 0
-10 0 1
-10 1 1
-10 2 0
-10 2 1
-10 3 0
-10 3 1
-10 4 0
-10 4 1
-10 5 0
-10 5 1
-10 6 0
-10 6 1
-10 7 0
-10 7 1
-10 8 0
-10 8 1
-10 9 0
-10 9 1
-10 10 0
-10 10 1
-10 11 0
-10 11 1
-10 12 0
-10 12 1
-10 13 0
-10 13 1
-10 14 0
-10 14 1
-10 15 0
-10 15 1
-10 16 0
-10 16 1
-10 17 0
-10 17 1
-10 18 0
-10 18 1
-10 19 0
-10 19 1
-10 20 0
-10 20 1
-10 21 0
-10 21 1
-10 22 0
-10 22 1
-10 23 0
-10 23 1
-10 24 0
-10 24 1
-10 25 0
-10 25 1
-10 26 0
-10 26 1
-10 27 0
-10 27 1
-10 28 0
-10 28 1
-10 29 0
-10 29 1
-10 30 0
-10 30 1
-11 0 0
-11 1 0
-11 0 1
-11 1 1
-11 2 0
-11 2 1
-11 3 0
-11 3 1
-11 4 0
-11 4 1
-11 5 0
-11 5 1
-11 6 0
-11 6 1
-11 7 0
-11 7 1
-11 8 0
-11 8 1
-11 9 0
-11 9 1
-11 10 0
-11 10 1
-11 11 0
-11 11 1
-11 12 0
-11 12 1
-11 13 0
-11 13 1
-11 14 0
-11 14 1
-11 15 0
-11 15 1
-11 16 0
-11 16 1
-11 17 0
-11 17 1
-11 18 0
-11 18 1
-11 19 0
-11 19 1
-11 20 0
-11 20 1
-11 21 0
-11 21 1
-11 22 0
-11 22 1
-11 23 0
-11 23 1
-11 24 0
-11 24 1
-11 25 0
-11 25 1
-11 26 0
-11 26 1
-11 27 0
-11 27 1
-11 28 0
-11 28 1
-11 29 0
-11 29 1
-11 30 0
-11 30 1
-12 0 0
-12 1 0
-12 0 1
-12 1 1
-12 2 0
-12 2 1
-12 3 0
-12 3 1
-12 4 0
-12 4 1
-12 5 0
-12 5 1
-12 6 0
-12 6 1
-12 7 0
-12 7 1
-12 8 0
-12 8 1
-12 9 0
-12 9 1
-12 10 0
-12 10 1
-12 11 0
-12 11 1
-12 12 0
-12 12 1
-12 13 0
-12 13 1
-12 14 0
-12 14 1
-12 15 0
-12 15 1
-12 16 0
-12 16 1
-12 17 0
-12 17 1
-12 18 0
-12 18 1
-12 19 0
-12 19 1
-12 20 0
-12 20 1
-12 21 0
-12 21 1
-12 22 0
-12 22 1
-12 23 0
-12 23 1
-12 24 0
-12 24 1
-12 25 0
-12 25 1
-12 26 0
-12 26 1
-12 27 0
-12 27 1
-12 28 0
-12 28 1
-12 29 0
-12 29 1
-12 30 0
-12 30 1
-13 0 0
-13 1 0
-13 0 1
-13 1 1
-13 2 0
-13 2 1
-13 3 0
-13 3 1
-13 4 0
-13 4 1
-13 5 0
-13 5 1
-13 6 0
-13 6 1
-13 7 0
-13 7 1
-13 8 0
-13 8 1
-13 9 0
-13 9 1
-13 10 0
-13 10 1
-13 11 0
-13 11 1
-13 12 0
-13 12 1
-13 13 0
-13 13 1
-13 14 0
-13 14 1
-13 15 0
-13 15 1
-13 16 0
-13 16 1
-13 17 0
-13 17 1
-13 18 0
-13 18 1
-13 19 0
-13 19 1
-13 20 0
-13 20 1
-13 21 0
-13 21 1
-13 22 0
-13 22 1
-13 23 0
-13 23 1
-13 24 0
-13 24 1
-13 25 0
-13 25 1
-13 26 0
-13 26 1
-13 27 0
-13 27 1
-13 28 0
-13 28 1
-13 29 0
-13 29 1
-13 30 0
-13 30 1
-14 0 0
-14 1 0
-14 0 1
-14 1 1
-14 2 0
-14 2 1
-14 3 0
-14 3 1
-14 4 0
-14 4 1
-14 5 0
-14 5 1
-14 6 0
-14 6 1
-14 7 0
-14 7 1
-14 8 0
-14 8 1
-14 9 0
-14 9 1
-14 10 0
-14 10 1
-14 11 0
-14 11 1
-14 12 0
-14 12 1
-14 13 0
-14 13 1
-14 14 0
-14 14 1
-14 15 0
-14 15 1
-14 16 0
-14 16 1
-14 17 0
-14 17 1
-14 18 0
-14 18 1
-14 19 0
-14 19 1
-14 20 0
-14 20 1
-14 21 0
-14 21 1
-14 22 0
-14 22 1
-14 23 0
-14 23 1
-14 24 0
-14 24 1
-14 25 0
-14 25 1
-14 26 0
-14 26 1
-14 27 0
-14 27 1
-14 28 0
-14 28 1
-14 29 0
-14 29 1
-14 30 0
-14 30 1
-15 0 0
-15 1 0
-15 0 1
-15 1 1
-15 2 0
-15 2 1
-15 3 0
-15 3 1
-15 4 0
-15 4 1
-15 5 0
-15 5 1
-15 6 0
-15 6 1
-15 7 0
-15 7 1
-15 8 0
-15 8 1
-15 9 0
-15 9 1
-15 10 0
-15 10 1
-15 11 0
-15 11 1
-15 12 0
-15 12 1
-15 13 0
-15 13 1
-15 14 0
-15 14 1
-15 15 0
-15 15 1
-15 16 0
-15 16 1
-15 17 0
-15 17 1
-15 18 0
-15 18 1
-15 19 0
-15 19 1
-15 20 0
-15 20 1
-15 21 0
-15 21 1
-15 22 0
-15 22 1
-15 23 0
-15 23 1
-15 24 0
-15 24 1
-15 25 0
-15 25 1
-15 26 0
-15 26 1
-15 27 0
-15 27 1
-15 28 0
-15 28 1
-15 29 0
-15 29 1
-15 30 0
-15 30 1
-16 0 0
-16 1 0
-16 0 1
-16 1 1
-16 2 0
-16 2 1
-16 3 0
-16 3 1
-16 4 0
-16 4 1
-16 5 0
-16 5 1
-16 6 0
-16 6 1
-16 7 0
-16 7 1
-16 8 0
-16 8 1
-16 9 0
-16 9 1
-16 10 0
-16 10 1
-16 11 0
-16 11 1
-16 12 0
-16 12 1
-16 13 0
-16 13 1
-16 14 0
-16 14 1
-16 15 0
-16 15 1
-16 16 0
-16 16 1
-16 17 0
-16 17 1
-16 18 0
-16 18 1
-16 19 0
-16 19 1
-16 20 0
-16 20 1
-16 21 0
-16 21 1
-16 22 0
-16 22 1
-16 23 0
-16 23 1
-16 24 0
-16 24 1
-16 25 0
-16 25 1
-16 26 0
-16 26 1
-16 27 0
-16 27 1
-16 28 0
-16 28 1
-16 29 0
-16 29 1
-16 30 0
-16 30 1
-17 0 0
-17 1 0
-17 0 1
-17 1 1
-17 2 0
-17 2 1
-17 3 0
-17 3 1
-17 4 0
-17 4 1
-17 5 0
-17 5 1
-17 6 0
-17 6 1
-17 7 0
-17 7 1
-17 8 0
-17 8 1
-17 9 0
-17 9 1
-17 10 0
-17 10 1
-17 11 0
-17 11 1
-17 12 0
-17 12 1
-17 13 0
-17 13 1
-17 14 0
-17 14 1
-17 15 0
-17 15 1
-17 16 0
-17 16 1
-17 17 0
-17 17 1
-17 18 0
-17 18 1
-17 19 0
-17 19 1
-17 20 0
-17 20 1
-17 21 0
-17 21 1
-17 22 0
-17 22 1
-17 23 0
-17 23 1
-17 24 0
-17 24 1
-17 25 0
-17 25 1
-17 26 0
-17 26 1
-17 27 0
-17 27 1
-17 28 0
-17 28 1
-17 29 0
-17 29 1
-17 30 0
-17 30 1
-18 0 0
-18 1 0
-18 0 1
-18 1 1
-18 2 0
-18 2 1
-18 3 0
-18 3 1
-18 4 0
-18 4 1
-18 5 0
-18 5 1
-18 6 0
-18 6 1
-18 7 0
-18 7 1
-18 8 0
-18 8 1
-18 9 0
-18 9 1
-18 10 0
-18 10 1
-18 11 0
-18 11 1
-18 12 0
-18 12 1
-18 13 0
-18 13 1
-18 14 0
-18 14 1
-18 15 0
-18 15 1
-18 16 0
-18 16 1
-18 17 0
-18 17 1
-18 18 0
-18 18 1
-18 19 0
-18 19 1
-18 20 0
-18 20 1
-18 21 0
-18 21 1
-18 22 0
-18 22 1
-18 23 0
-18 23 1
-18 24 0
-18 24 1
-18 25 0
-18 25 1
-18 26 0
-18 26 1
-18 27 0
-18 27 1
-18 28 0
-18 28 1
-18 29 0
-18 29 1
-18 30 0
-18 30 1
-19 0 0
-19 1 0
-19 0 1
-19 1 1
-19 2 0
-19 2 1
-19 3 0
-19 3 1
-19 4 0
-19 4 1
-19 5 0
-19 5 1
-19 6 0
-19 6 1
-19 7 0
-19 7 1
-19 8 0
-19 8 1
-19 9 0
-19 9 1
-19 10 0
-19 10 1
-19 11 0
-19 11 1
-19 12 0
-19 12 1
-19 13 0
-19 13 1
-19 14 0
-19 14 1
-19 15 0
-19 15 1
-19 16 0
-19 16 1
-19 17 0
-19 17 1
-19 18 0
-19 18 1
-19 19 0
-19 19 1
-19 20 0
-19 20 1
-19 21 0
[...]
CELL_DATA 17960

SCALARS CGUP DOUBLE
LOOKUP_TABLE default
0.000000
0.000000
0.000000
0.000000
0.000000
0.000000
609467.264335
0.000000
756998.028723
602376.982101
0.000000
0.000000
0.000000
0.000000
594162.477600
0.000000
0.000000
0.000000
0.000000
0.000000
0.000000
0.000000
0.000000
614466.468244
0.000000
0.000000
616938.443763
609576.361369
0.000000
0.000000
0.000000
0.000000
0.000000
0.000000
0.000000
0.000000
0.000000
610956.596352
0.000000
0.000000
0.000000
0.000000
0.000000
0.000000
0.000000
0.000000
0.000000
0.000000
607585.581798
0.000000
0.000000
757630.425203
614630.140434
0.000000
0.000000
0.000000
609248.807656
748329.040558
0.000000
0.000000
0.000000
0.000000
0.000000
0.000000
0.000000
0.000000
0.000000
0.000000
0.000000
587831.536149
0.000000
0.000000
0.000000
0.000000
0.000000
0.000000
0.000000
0.000000
743046.809631
606125.483896
0.000000
0.000000
0.000000
0.000000
0.000000
0.000000
0.000000
0.000000
0.000000
0.000000
0.000000
0.000000
0.000000
605271.338838
751085.888432
610031.543914
0.000000
0.000000
0.000000
0.000000
0.000000
0.000000
0.000000
0.000000
0.000000
0.000000
0.000000
0.000000
0.000000
583893.978162
0.000000
0.000000
0.000000
0.000000
0.000000
611326.391908
0.000000
616058.320462
606958.169180
0.000000
0.000000
0.000000
0.000000
0.000000
0.000000
0.000000
0.000000
0.000000
0.000000
0.000000
0.000000
614748.784311
597702.540575
0.000000
0.000000
0.000000
0.000000
0.000000
0.000000
0.000000
0.000000
0.000000
0.000000
624696.693747
0.000000
0.000000
0.000000
0.000000
0.000000
0.000000
0.000000
0.000000
0.000000
0.000000
603837.625053
0.000000
0.000000
620179.961725
0.000000
0.000000
0.000000
0.000000
0.000000
0.000000
0.000000
615637.576508
587490.905472
0.000000
0.000000
0.000000
0.000000
0.000000
0.000000
0.000000
0.000000
0.000000
0.000000
0.000000
610491.134843
597352.080873
598073.255096
0.000000
0.000000
0.000000
0.000000
0.000000
0.000000
780211.870200
610847.174160
0.000000
0.000000
0.000000
737669.516003
606171.097091
0.000000
0.000000
0.000000
612321.441013
0.000000
597499.861969
619431.828955
0.000000
0.000000
0.000000
0.000000
0.000000
0.000000
613822.244748
0.000000
0.000000
0.000000
0.000000
0.000000
0.000000
0.000000
0.000000
0.000000
609481.960380
0.000000
0.000000
615346.178401
0.000000
0.000000
0.000000
0.000000
0.000000
0.000000
0.000000
0.000000
0.000000
0.000000
0.000000
0.000000
0.000000
0.000000
0.000000
0.000000
0.000000
614203.323990
0.000000
0.000000
0.000000
0.000000
0.000000
624286.490874
599135.718447
0.000000
0.000000
0.000000
0.000000
0.000000
602230.242872
0.000000
0.000000
0.000000
0.000000
0.000000
0.000000
0.000000
0.000000
0.000000
0.000000
0.000000
0.000000
0.000000
0.000000
0.000000
0.000000
0.000000
0.000000
0.000000
0.000000
604507.244096
0.000000
0.000000
608220.306796
0.000000
0.000000
597630.702284
620135.844738
0.000000
0.000000
0.000000
0.000000
0.000000
0.000000
0.000000
0.000000
0.000000
0.000000
0.000000
0.000000
0.000000
0.000000
0.000000
0.000000
0.000000
0.000000
0.000000
0.000000
604958.545745
0.000000
0.000000
0.000000
0.000000
0.000000
0.000000
0.000000
0.000000
0.000000
610845.265211
0.000000
0.000000
0.000000
600809.651687
0.000000
0.000000
0.000000
0.000000
0.000000
0.000000
0.000000
751082.040521
0.000000
0.000000
0.000000
780361.588814
0.000000
620192.992648
0.000000
0.000000
0.000000
0.000000
0.000000
0.000000
0.000000
0.000000
0.000000
0.000000
0.000000
0.000000
0.000000
0.000000
0.000000
0.000000
0.000000
599157.715827
0.000000
0.000000
0.000000
0.000000
0.000000
0.000000
0.000000
0.000000
0.000000
0.000000
605881.244282
0.000000
0.000000
604730.170731
0.000000
0.000000
0.000000
0.000000
0.000000
587919.584759
0.000000
0.000000
0.000000
0.000000
0.000000
0.000000
0.000000
0.000000
0.000000
0.000000
593358.824005
0.000000
0.000000
0.000000
0.000000
0.000000
0.000000
0.000000
0.000000
0.000000
0.000000
0.000000
0.000000
611234.761289
0.000000
0.000000
0.000000
0.000000
0.000000
0.000000
0.000000
0.000000
0.000000
0.000000
0.000000
0.000000
0.000000
0.000000
0.000000
602584.634940
0.000000
0.000000
0.000000
0.000000
0.000000
0.000000
0.000000
0.000000
0.000000
0.000000
0.000000
0.000000
0.000000
0.000000
0.000000
0.000000
0.000000
0.000000
0.000000
0.000000
0.000000
0.000000
604143.740721
749886.893435
0.000000
0.000000
0.000000
0.000000
610117.016374
0.000000
615774.154115
0.000000
0.000000
0.000000
0.000000
0.000000
0.000000
0.000000
0.000000
619329.117963
0.000000
0.000000
0.000000
0.000000
0.000000
0.000000
763014.703843
0.000000
0.000000
0.000000
0.000000
612372.851517
0.000000
0.000000
0.000000
0.000000
0.000000
0.000000
606446.551219
0.000000
786403.290317
624083.716387
0.000000
0.000000
609015.833245
0.000000
610132.759672
0.000000
0.000000
0.000000
0.000000
0.000000
0.000000
605205.498008
613033.815555
0.000000
0.000000
0.000000
0.000000
0.000000
612080.233387
0.000000
606627.021431
0.000000
0.000000
0.000000
0.000000
0.000000
0.000000
0.000000
0.000000
0.000000
0.000000
0.000000
0.000000
0.000000
0.000000
0.000000
0.000000
0.000000
0.000000
0.000000
599476.303496
745927.780524
599100.461321
598989.738038
0.000000
0.000000
0.000000
0.000000
0.000000
0.000000
0.000000
0.000000
0.000000
0.000000
0.000000
0.000000
0.000000
0.000000
0.000000
0.000000
0.000000
587813.976721
0.000000
0.000000
0.000000
0.000000
0.000000
0.000000
0.000000
0.000000
0.000000
0.000000
0.000000
0.000000
0.000000
0.000000
0.000000
0.000000
0.000000
0.000000
0.000000
0.000000
618407.164313
746329.864120
752917.591052
0.000000
599409.756657
0.000000
0.000000
0.000000
0.000000
0.000000
0.000000
594920.143355
0.000000
610993.771998
0.000000
609495.221342
0.000000
0.000000
0.000000
0.000000
0.000000
0.000000
0.000000
602011.791808
0.000000
598349.700308
0.000000
0.000000
0.000000
0.000000
0.000000
0.000000
0.000000
0.000000
0.000000
0.000000
0.000000
746040.456859
0.000000
0.000000
0.000000
0.000000
0.000000
793494.516165
0.000000
0.000000
613317.724463
0.000000
0.000000
0.000000
0.000000
0.000000
0.000000
611051.751948
0.000000
0.000000
594891.857908
0.000000
0.000000
0.000000
0.000000
0.000000
0.000000
607044.123497
0.000000
0.000000
0.000000
0.000000
0.000000
780841.933226
0.000000
0.000000
0.000000
0.000000
0.000000
603870.125372
614037.093035
599774.086334
0.000000
0.000000
0.000000
615760.661747
0.000000
0.000000
621173.532604
0.000000
0.000000
0.000000
0.000000
0.000000
0.000000
0.000000
0.000000
0.000000
0.000000
0.000000
0.000000
0.000000
0.000000
593081.091786
0.000000
590256.285809
0.000000
0.000000
615642.876624
779980.864495
0.000000
0.000000
0.000000
0.000000
0.000000
0.000000
0.000000
0.000000
0.000000
0.000000
0.000000
0.000000
0.000000
596036.441704
0.000000
0.000000
0.000000
0.000000
0.000000
603923.319602
584159.524119
0.000000
736886.785191
0.000000
583157.354036
752486.748979
0.000000
0.000000
0.000000
0.000000
0.000000
0.000000
609953.454696
0.000000
0.000000
0.000000
0.000000
0.000000
751124.242769
609357.784157
0.000000
611873.093773
0.000000
0.000000
790001.771081
0.000000
0.000000
0.000000
0.000000
0.000000
0.000000
0.000000
0.000000
0.000000
0.000000
0.000000
0.000000
0.000000
0.000000
0.000000
0.000000
0.000000
0.000000
0.000000
0.000000
0.000000
0.000000
0.000000
747731.710991
0.000000
0.000000
0.000000
0.000000
0.000000
0.000000
0.000000
0.000000
0.000000
0.000000
0.000000
0.000000
0.000000
615027.532670
0.000000
0.000000
0.000000
0.000000
0.000000
0.000000
0.000000
0.000000
0.000000
616783.703626
0.000000
0.000000
617469.139141
0.000000
0.000000
0.000000
0.000000
0.000000
0.000000
0.000000
0.000000
0.000000
0.000000
588216.417907
605405.522062
0.000000
748154.832097
0.000000
0.000000
0.000000
0.000000
593130.242399
0.000000
0.000000
0.000000
0.000000
0.000000
0.000000
0.000000
0.000000
0.000000
0.000000
752634.837587
0.000000
0.000000
0.000000
0.000000
0.000000
0.000000
0.000000
620159.017392
611170.546700
0.000000
606061.419652
0.000000
601644.534087
758272.376664
0.000000
610661.217383
608145.791657
0.000000
0.000000
0.000000
0.000000
0.000000
0.000000
0.000000
0.000000
0.000000
0.000000
0.000000
0.000000
0.000000
0.000000
0.000000
0.000000
583555.571476
599212.001105
0.000000
0.000000
0.000000
0.000000
0.000000
0.000000
0.000000
0.000000
0.000000
0.000000
0.000000
0.000000
610970.133588
0.000000
0.000000
0.000000
0.000000
0.000000
0.000000
0.000000
0.000000
0.000000
602174.955738
617533.556919
0.000000
0.000000
0.000000
0.000000
0.000000
0.000000
0.000000
0.000000
0.000000
0.000000
0.000000
0.000000
0.000000
0.000000
0.000000
610672.028152
0.000000
0.000000
0.000000
613484.208552
0.000000
0.000000
0.000000
614352.181233
0.000000
0.000000
0.000000
778661.658082
0.000000
0.000000
0.000000
0.000000
0.000000
0.000000
0.000000
0.000000
0.000000
0.000000
0.000000
0.000000
0.000000
0.000000
610466.560778
0.000000
0.000000
0.000000
0.000000
0.000000
0.000000
619764.880913
0.000000
0.000000
0.000000
0.000000
0.000000
0.000000
0.000000
0.000000
0.000000
0.000000
0.000000
0.000000
0.000000
0.000000
0.000000
0.000000
0.000000
0.000000
0.000000
619473.271640
0.000000
752143.794466
0.000000
779455.367347
0.000000
0.000000
779311.658296
758814.724389
0.000000
0.000000
0.000000
0.000000
0.000000
0.000000
0.000000
0.000000
0.000000
0.000000
0.000000
0.000000
0.000000
0.000000
0.000000
0.000000
0.000000
606001.794872
0.000000
0.000000
0.000000
0.000000
0.000000
0.000000
0.000000
611723.436313
0.000000
0.000000
613217.928891
0.000000
617932.716651
0.000000
0.000000
607801.881093
0.000000
0.000000
0.000000
594766.315975
0.000000
0.000000
0.000000
0.000000
0.000000
0.000000
0.000000
0.000000
0.000000
593647.834247
0.000000
0.000000
0.000000
0.000000
0.000000
0.000000
0.000000
0.000000
0.000000
0.000000
0.000000
0.000000
592905.473115
0.000000
0.000000
0.000000
0.000000
0.000000
0.000000
0.000000
0.000000
0.000000
0.000000
0.000000
0.000000
0.000000
0.000000
0.000000
0.000000
605290.081691
0.000000
0.000000
0.000000
0.000000
0.000000
0.000000
0.000000
0.000000
0.000000
0.000000
609735.410056
0.000000
0.000000
0.000000
0.000000
606185.342104
0.000000
0.000000
0.000000
0.000000
593380.679142
597842.733757
0.000000
736154.505804
0.000000
0.000000
0.000000
615621.591055
0.000000
618196.068770
0.000000
0.000000
0.000000
0.000000
0.000000
0.000000
0.000000
0.000000
0.000000
592490.805657
600365.786544
0.000000
0.000000
0.000000
0.000000
0.000000
737726.001577
0.000000
617742.334496
0.000000
0.000000
616091.028011
0.000000
0.000000
0.000000
0.000000
616693.282933
0.000000
0.000000
0.000000
0.000000
0.000000
0.000000
0.000000
0.000000
0.000000
0.000000
0.000000
0.000000
0.000000
0.000000
0.000000
0.000000
0.000000
0.000000
607151.725786
0.000000
0.000000
0.000000
0.000000
0.000000
0.000000
0.000000
0.000000
0.000000
0.000000
619540.071950
613084.064029
0.000000
0.000000
0.000000
0.000000
0.000000
0.000000
0.000000
0.000000
0.000000
0.000000
616287.302205
0.000000
0.000000
0.000000
788146.973802
589468.332186
0.000000
0.000000
0.000000
613905.569530
0.000000
0.000000
592862.433710
620574.495548
0.000000
0.000000
0.000000
0.000000
0.000000
0.000000
0.000000
0.000000
0.000000
0.000000
0.000000
0.000000
0.000000
0.000000
0.000000
0.000000
788108.982667
618938.125798
0.000000
613379.012094
0.000000
0.000000
0.000000
0.000000
0.000000
0.000000
606715.350837
0.000000
0.000000
0.000000
0.000000
599304.921358
0.000000
0.000000
609091.236223
0.000000
0.000000
0.000000
611166.597399
0.000000
0.000000
0.000000
598866.538119
0.000000
0.000000
0.000000
0.000000
0.000000
0.000000
0.000000
0.000000
0.000000
603760.823270
615577.215669
0.000000
0.000000
0.000000
0.000000
0.000000
0.000000
0.000000
0.000000
0.000000
0.000000
0.000000
0.000000
0.000000
0.000000
618413.164275
0.000000
0.000000
0.000000
0.000000
0.000000
0.000000
0.000000
0.000000
0.000000
0.000000
0.000000
0.000000
0.000000
0.000000
0.000000
742799.207363
0.000000
0.000000
0.000000
0.000000
0.000000
0.000000
739902.097886
596466.847477
591187.807395
607201.852983
624458.761687
0.000000
609781.187826
611145.578024
0.000000
0.000000
0.000000
598637.564120
0.000000
0.000000
0.000000
612998.313670
0.000000
0.000000
0.000000
752025.666299
0.000000
0.000000
0.000000
0.000000
0.000000
0.000000
0.000000
599819.116628
751795.175990
0.000000
0.000000
601551.092514
0.000000
0.000000
0.000000
0.000000
0.000000
0.000000
620746.213201
0.000000
613547.112388
615950.902450
617459.516846
0.000000
0.000000
0.000000
615436.634740
0.000000
0.000000
0.000000
0.000000
0.000000
614746.507375
0.000000
0.000000
617047.894755
0.000000
0.000000
0.000000
0.000000
0.000000
0.000000
0.000000
0.000000
0.000000
0.000000
0.000000
0.000000
0.000000
0.000000
0.000000
0.000000
583166.633062
0.000000
0.000000
0.000000
0.000000
780163.361043
0.000000
0.000000
0.000000
0.000000
0.000000
0.000000
0.000000
0.000000
0.000000
0.000000
0.000000
0.000000
614816.331380
0.000000
0.000000
0.000000
0.000000
0.000000
0.000000
0.000000
0.000000
0.000000
0.000000
0.000000
0.000000
0.000000
0.000000
0.000000
0.000000
605629.236910
748395.384727
0.000000
0.000000
0.000000
0.000000
602525.485331
0.000000
0.000000
615690.665932
624448.920315
0.000000
0.000000
0.000000
0.000000
0.000000
0.000000
0.000000
0.000000
0.000000
0.000000
0.000000
0.000000
0.000000
615992.312081
0.000000
0.000000
588301.316060
0.000000
0.000000
0.000000
0.000000
0.000000
0.000000
0.000000
600331.777439
599871.762894
0.000000
0.000000
0.000000
0.000000
0.000000
0.000000
0.000000
0.000000
0.000000
599522.310934
0.000000
0.000000
618216.055189
0.000000
0.000000
0.000000
0.000000
588405.918681
609937.128760
0.000000
0.000000
0.000000
0.000000
0.000000
0.000000
0.000000
0.000000
756559.577701
583148.848607
0.000000
0.000000
0.000000
0.000000
0.000000
0.000000
0.000000
0.000000
613259.998198
0.000000
794355.567345
736500.050916
0.000000
0.000000
0.000000
609752.612676
0.000000
0.000000
0.000000
0.000000
0.000000
0.000000
0.000000
614454.835939
0.000000
0.000000
0.000000
0.000000
610971.916027
0.000000
0.000000
0.000000
0.000000
0.000000
0.000000
0.000000
0.000000
0.000000
0.000000
0.000000
0.000000
0.000000
0.000000
0.000000
0.000000
0.000000
0.000000
0.000000
0.000000
0.000000
0.000000
0.000000
0.000000
0.000000
0.000000
0.000000
0.000000
0.000000
0.000000
0.000000
607275.130190
613693.168248
0.000000
0.000000
0.000000
0.000000
0.000000
0.000000
754245.417220
617564.729853
0.000000
0.000000
0.000000
0.000000
0.000000
0.000000
0.000000
0.000000
0.000000
0.000000
0.000000
0.000000
611159.336166
604967.657924
0.000000
0.000000
615397.452386
620259.291941
0.000000
765265.410524
0.000000
0.000000
0.000000
0.000000
0.000000
0.000000
0.000000
0.000000
0.000000
0.000000
0.000000
0.000000
0.000000
0.000000
0.000000
0.000000
0.000000
0.000000
0.000000
0.000000
0.000000
0.000000
0.000000
615954.439195
587775.483235
0.000000
0.000000
0.000000
0.000000
0.000000
0.000000
0.000000
0.000000
618124.432723
0.000000
0.000000
0.000000
788537.693081
587781.728198
0.000000
0.000000
0.000000
0.000000
0.000000
0.000000
616499.645097
0.000000
617037.939495
606426.231461
0.000000
0.000000
0.000000
0.000000
0.000000
752404.810485
616999.548103
0.000000
0.000000
0.000000
0.000000
584162.045570
0.000000
0.000000
0.000000
0.000000
0.000000
0.000000
607479.797049
0.000000
0.000000
0.000000
0.000000
768421.547455
619373.905516
741084.710543
0.000000
0.000000
0.000000
0.000000
0.000000
605097.002287
0.000000
0.000000
0.000000
0.000000
0.000000
0.000000
0.000000
0.000000
0.000000
0.000000
0.000000
0.000000
0.000000
0.000000
0.000000
0.000000
0.000000
0.000000
0.000000
587166.542902
0.000000
0.000000
603192.319833
0.000000
0.000000
0.000000
0.000000
0.000000
0.000000
0.000000
0.000000
598103.714446
0.000000
0.000000
622958.410717
0.000000
0.000000
0.000000
0.000000
590718.287399
597767.571132
0.000000
0.000000
0.000000
0.000000
611582.228395
0.000000
603874.229638
0.000000
0.000000
0.000000
0.000000
780722.242133
0.000000
610870.336602
0.000000
0.000000
0.000000
0.000000
0.000000
0.000000
0.000000
0.000000
0.000000
611104.435406
0.000000
0.000000
0.000000
0.000000
0.000000
0.000000
0.000000
0.000000
0.000000
0.000000
779168.347060
603925.890184
0.000000
0.000000
0.000000
0.000000
0.000000
0.000000
0.000000
0.000000
0.000000
0.000000
0.000000
0.000000
0.000000
0.000000
0.000000
0.000000
0.000000
0.000000
0.000000
0.000000
0.000000
0.000000
0.000000
0.000000
0.000000
0.000000
0.000000
0.000000
0.000000
0.000000
0.000000
0.000000
0.000000
624785.082913
0.000000
0.000000
0.000000
0.000000
0.000000
0.000000
620760.888683
0.000000
0.000000
0.000000
0.000000
0.000000
0.000000
599409.838576
0.000000
0.000000
0.000000
615762.644387
0.000000
0.000000
0.000000
615711.482023
0.000000
609461.648058
0.000000
0.000000
0.000000
0.000000
0.000000
0.000000
0.000000
0.000000
0.000000
0.000000
0.000000
0.000000
0.000000
0.000000
0.000000
601412.403317
0.000000
0.000000
0.000000
0.000000
0.000000
0.000000
0.000000
0.000000
0.000000
0.000000
0.000000
0.000000
0.000000
0.000000
0.000000
0.000000
0.000000
0.000000
598070.205075
780337.220045
1106065.689115
599892.423091
0.000000
0.000000
0.000000
0.000000
0.000000
605158.864338
0.000000
600250.990630
620290.434794
0.000000
0.000000
0.000000
0.000000
0.000000
0.000000
0.000000
0.000000
0.000000
0.000000
0.000000
744187.809302
0.000000
601902.914258
0.000000
608506.382402
0.000000
0.000000
0.000000
0.000000
0.000000
0.000000
0.000000
0.000000
0.000000
0.000000
0.000000
0.000000
0.000000
0.000000
0.000000
0.000000
0.000000
0.000000
0.000000
601141.337885
0.000000
0.000000
0.000000
0.000000
791986.098585
0.000000
0.000000
0.000000
0.000000
0.000000
0.000000
615667.265764
0.000000
0.000000
0.000000
602769.463601
605002.277410
605210.203563
0.000000
0.000000
0.000000
591248.248588
583716.087598
0.000000
740263.506567
0.000000
0.000000
0.000000
0.000000
0.000000
0.000000
0.000000
0.000000
0.000000
0.000000
615859.044389
0.000000
618300.055769
600044.042633
789201.319205
0.000000
0.000000
0.000000
734013.350166
0.000000
0.000000
0.000000
0.000000
0.000000
746277.941751
1165187.030670
0.000000
0.000000
0.000000
0.000000
0.000000
605479.908628
594875.885580
0.000000
0.000000
0.000000
0.000000
608741.073786
0.000000
592163.730600
0.000000
0.000000
0.000000
0.000000
0.000000
0.000000
599629.633840
618344.085903
614441.572728
599873.971997
0.000000
0.000000
0.000000
595901.696333
613259.869952
0.000000
608242.008518
0.000000
0.000000
607624.321360
0.000000
0.000000
615750.445797
0.000000
0.000000
0.000000
0.000000
0.000000
0.000000
0.000000
599999.551320
0.000000
0.000000
0.000000
0.000000
0.000000
0.000000
0.000000
0.000000
0.000000
0.000000
600474.436774
0.000000
785774.893318
0.000000
0.000000
605480.283666
0.000000
0.000000
0.000000
0.000000
0.000000
593406.018794
614726.916598
0.000000
0.000000
0.000000
0.000000
0.000000
0.000000
0.000000
0.000000
0.000000
0.000000
0.000000
584106.496460
612133.222123
0.000000
0.000000
0.000000
0.000000
0.000000
0.000000
0.000000
0.000000
0.000000
0.000000
0.000000
0.000000
0.000000
0.000000
0.000000
602728.325710
601837.927691
0.000000
0.000000
0.000000
588308.988816
600604.040457
615176.617545
599112.662025
0.000000
0.000000
588249.068143
0.000000
0.000000
617419.122719
0.000000
0.000000
0.000000
0.000000
0.000000
0.000000
0.000000
0.000000
0.000000
0.000000
0.000000
0.000000
0.000000
0.000000
614359.218092
0.000000
0.000000
0.000000
0.000000
0.000000
0.000000
0.000000
0.000000
603707.948137
0.000000
0.000000
0.000000
0.000000
0.000000
0.000000
601037.990566
0.000000
0.000000
0.000000
0.000000
0.000000
0.000000
596672.225701
0.000000
0.000000
0.000000
0.000000
0.000000
0.000000
0.000000
0.000000
0.000000
0.000000
0.000000
582753.734239
0.000000
0.000000
0.000000
0.000000
0.000000
0.000000
0.000000
0.000000
0.000000
0.000000
0.000000
0.000000
0.000000
0.000000
609325.829929
0.000000
0.000000
0.000000
0.000000
0.000000
0.000000
0.000000
0.000000
584150.678910
0.000000
0.000000
0.000000
0.000000
0.000000
0.000000
0.000000
0.000000
0.000000
0.000000
0.000000
0.000000
0.000000
0.000000
0.000000
0.000000
0.000000
0.000000
0.000000
0.000000
609724.632424
0.000000
0.000000